# vtk DataFile Version 2.0
MEF - Elasticidade Plana 2D
ASCII
DATASET UNSTRUCTURED_GRID
POINTS       36 float
  0.00000000E+00  0.00000000E+00  0.00000000E+00
  0.00000000E+00  0.20000000E+00  0.00000000E+00
  0.20000000E+00  0.00000000E+00  0.00000000E+00
  0.20000000E+00  0.20000000E+00  0.00000000E+00
  0.00000000E+00  0.40000000E+00  0.00000000E+00
  0.40000000E+00  0.00000000E+00  0.00000000E+00
  0.20000000E+00  0.40000000E+00  0.00000000E+00
  0.40000000E+00  0.20000000E+00  0.00000000E+00
  0.40000000E+00  0.40000000E+00  0.00000000E+00
  0.60000000E+00  0.00000000E+00  0.00000000E+00
  0.00000000E+00  0.60000000E+00  0.00000000E+00
  0.20000000E+00  0.60000000E+00  0.00000000E+00
  0.60000000E+00  0.20000000E+00  0.00000000E+00
  0.60000000E+00  0.40000000E+00  0.00000000E+00
  0.40000000E+00  0.60000000E+00  0.00000000E+00
  0.00000000E+00  0.80000000E+00  0.00000000E+00
  0.80000000E+00  0.00000000E+00  0.00000000E+00
  0.20000000E+00  0.80000000E+00  0.00000000E+00
  0.80000000E+00  0.20000000E+00  0.00000000E+00
  0.60000000E+00  0.60000000E+00  0.00000000E+00
  0.80000000E+00  0.40000000E+00  0.00000000E+00
  0.40000000E+00  0.80000000E+00  0.00000000E+00
  0.60000000E+00  0.80000000E+00  0.00000000E+00
  0.80000000E+00  0.60000000E+00  0.00000000E+00
  0.10000000E+01  0.00000000E+00  0.00000000E+00
  0.00000000E+00  0.10000000E+01  0.00000000E+00
  0.20000000E+00  0.10000000E+01  0.00000000E+00
  0.10000000E+01  0.20000000E+00  0.00000000E+00
  0.10000000E+01  0.40000000E+00  0.00000000E+00
  0.40000000E+00  0.10000000E+01  0.00000000E+00
  0.80000000E+00  0.80000000E+00  0.00000000E+00
  0.60000000E+00  0.10000000E+01  0.00000000E+00
  0.10000000E+01  0.60000000E+00  0.00000000E+00
  0.80000000E+00  0.10000000E+01  0.00000000E+00
  0.10000000E+01  0.80000000E+00  0.00000000E+00
  0.10000000E+01  0.10000000E+01  0.00000000E+00
CELLS       25     125
       4      15      17      26      25
       4      10      11      17      15
       4       4       6      11      10
       4       1       3       6       4
       4       0       2       3       1
       4      17      21      29      26
       4      11      14      21      17
       4       6       8      14      11
       4       3       7       8       6
       4       2       5       7       3
       4      21      22      31      29
       4      14      19      22      21
       4       8      13      19      14
       4       7      12      13       8
       4       5       9      12       7
       4      22      30      33      31
       4      19      23      30      22
       4      13      20      23      19
       4      12      18      20      13
       4       9      16      18      12
       4      30      34      35      33
       4      23      32      34      30
       4      20      28      32      23
       4      18      27      28      20
       4      16      24      27      18
CELL_TYPES       25
 9
 9
 9
 9
 9
 9
 9
 9
 9
 9
 9
 9
 9
 9
 9
 9
 9
 9
 9
 9
 9
 9
 9
 9
 9
POINT_DATA       36
VECTORS Deslocamentos float
  0.00000000E+00  0.00000000E+00  0.00000000E+00
  0.00000000E+00  0.00000000E+00  0.00000000E+00
 -0.47945862E+00 -0.58969628E+00  0.00000000E+00
 -0.15674836E+00 -0.47436735E+00  0.00000000E+00
  0.00000000E+00  0.00000000E+00  0.00000000E+00
 -0.74312136E+00 -0.11439294E+01  0.00000000E+00
 -0.44868887E-01 -0.47945838E+00  0.00000000E+00
 -0.31453626E+00 -0.10891482E+01  0.00000000E+00
 -0.67137472E-01 -0.10893490E+01  0.00000000E+00
 -0.86417259E+00 -0.17132985E+01  0.00000000E+00
  0.00000000E+00  0.00000000E+00  0.00000000E+00
  0.49398841E-01 -0.52819295E+00  0.00000000E+00
 -0.40545492E+00 -0.16932455E+01  0.00000000E+00
 -0.74129139E-01 -0.17166101E+01  0.00000000E+00
  0.13059615E+00 -0.11702011E+01  0.00000000E+00
  0.00000000E+00  0.00000000E+00  0.00000000E+00
 -0.89980704E+00 -0.22402578E+01  0.00000000E+00
  0.17012344E+00 -0.63442665E+00  0.00000000E+00
 -0.44152153E+00 -0.22448515E+01  0.00000000E+00
  0.22256282E+00 -0.18096593E+01  0.00000000E+00
 -0.60086251E-01 -0.22851186E+01  0.00000000E+00
  0.40815616E+00 -0.13420466E+01  0.00000000E+00
  0.57792552E+00 -0.19701787E+01  0.00000000E+00
  0.29467764E+00 -0.23798011E+01  0.00000000E+00
 -0.90265153E+00 -0.27153938E+01  0.00000000E+00
  0.00000000E+00  0.00000000E+00  0.00000000E+00
  0.58676644E+00 -0.92363812E+00  0.00000000E+00
 -0.44530688E+00 -0.27181228E+01  0.00000000E+00
 -0.35600941E-01 -0.27509239E+01  0.00000000E+00
  0.89626726E+00 -0.15664196E+01  0.00000000E+00
  0.69222080E+00 -0.25268361E+01  0.00000000E+00
  0.10658471E+01 -0.21685614E+01  0.00000000E+00
  0.35385378E+00 -0.28484893E+01  0.00000000E+00
  0.11666952E+01 -0.27042965E+01  0.00000000E+00
  0.77533914E+00 -0.30066541E+01  0.00000000E+00
  0.12450590E+01 -0.31882076E+01  0.00000000E+00
SCALARS Tensao_X float 1
LOOKUP_TABLE default
 -0.12516772E+01
 -0.14892261E+01
 -0.12307229E+01
 -0.12343445E+01
 -0.40997440E+00
 -0.74632757E+00
 -0.35435905E+00
 -0.64881085E+00
 -0.24259125E+00
 -0.37916386E+00
  0.22643561E+00
  0.35448677E+00
 -0.28437139E+00
 -0.10409012E+00
  0.31613538E+00
  0.14806631E+01
 -0.11623470E+00
  0.13071427E+01
 -0.64041738E-01
  0.14454400E+00
 -0.32740541E-01
  0.60581155E+00
  0.25935798E+00
  0.43149299E-01
 -0.36254362E-01
  0.10797227E+01
  0.12892142E+01
 -0.98043437E-02
 -0.11396646E-01
  0.73168332E+00
  0.56216714E-01
  0.36826574E+00
  0.16869957E-01
  0.11106756E+00
  0.10621588E-01
  0.38287469E-01
SCALARS Tensao_Y float 1
LOOKUP_TABLE default
 -0.36669007E-01
 -0.39938843E+00
 -0.27484745E+00
 -0.40587536E+00
 -0.29232670E+00
  0.37083837E-01
 -0.27092553E+00
 -0.13053640E+00
 -0.33545201E+00
 -0.30473953E-01
 -0.23872435E+00
 -0.21180456E+00
 -0.11326637E+00
 -0.34620085E+00
 -0.45380665E+00
 -0.22223717E+00
 -0.17612987E-01
 -0.98618041E-01
 -0.95569938E-01
 -0.62088719E+00
 -0.35972666E+00
 -0.78761456E+00
 -0.87799357E+00
 -0.67358605E+00
 -0.38612442E-01
 -0.79052486E+00
 -0.26943715E+00
 -0.12202874E+00
 -0.37296427E+00
 -0.10034121E+01
 -0.92114406E+00
 -0.94316749E+00
 -0.66496436E+00
 -0.98165742E+00
 -0.89575661E+00
 -0.96340094E+00
SCALARS Tensao_XY float 1
LOOKUP_TABLE default
 -0.46966473E+00
 -0.67399693E+00
 -0.60222790E+00
 -0.72348482E+00
 -0.79880208E+00
 -0.38587479E+00
 -0.86736190E+00
 -0.54109819E+00
 -0.79270245E+00
 -0.24021748E+00
 -0.89632205E+00
 -0.93579216E+00
 -0.36868659E+00
 -0.56429290E+00
 -0.81062284E+00
 -0.95130274E+00
 -0.99897229E-01
 -0.91083474E+00
 -0.18144844E+00
 -0.55045963E+00
 -0.30192914E+00
 -0.55026899E+00
 -0.33852381E+00
 -0.28867849E+00
 -0.29959026E-01
 -0.70566971E+00
 -0.79654523E+00
 -0.92912254E-01
 -0.18295002E+00
 -0.38158664E+00
 -0.15626362E+00
 -0.20143131E+00
 -0.17229124E+00
 -0.74148591E-01
 -0.75013438E-01
 -0.13871911E-01
